8
Lattice="5.44 0.0 0.0 0.0 5.44 0.0 0.0 0.0 5.44" Properties=pos:R:3 Time=0.0
1        0.00000000      0.00000000      0.00000000
2        1.36000000      1.36000000      1.36000000
3        2.72000000      2.72000000      0.00000000
4        4.08000000      4.08000000      1.36000000
5        2.72000000      0.00000000      2.72000000
6        4.08000000      1.36000000      4.08000000
7        0.00000000      2.72000000      2.72000000
8        1.36000000      4.08000000      4.08000000